
     Program DOS v.7.3.1 starts on 12Aug2024 at 15: 3:24 

     This program is part of the open-source Quantum ESPRESSO suite
     for quantum simulation of materials; please cite
         "P. Giannozzi et al., J. Phys.:Condens. Matter 21 395502 (2009);
         "P. Giannozzi et al., J. Phys.:Condens. Matter 29 465901 (2017);
         "P. Giannozzi et al., J. Chem. Phys. 152 154105 (2020);
          URL http://www.quantum-espresso.org", 
     in publications or presentations arising from this work. More details at
     http://www.quantum-espresso.org/quote

     Parallel version (MPI & OpenMP), running on      15 processor cores
     Number of MPI processes:                15
     Threads/MPI process:                     1

     MPI processes distributed on     1 nodes
     R & G space division:  proc/nbgrp/npool/nimage =      15
     54536 MiB available memory on the printing compute node when the environment starts
 

     Reading xml data from directory:

     ./tmp/al.save/

     IMPORTANT: XC functional enforced from input :
     Exchange-correlation= PBE
                           (   1   4   3   4   0   0   0)
     Any further DFT definition will be discarded
     Please, verify this is what you really want

 
     Parallelization info
     --------------------
     sticks:   dense  smooth     PW     G-vecs:    dense   smooth      PW
     Min          66      26      8                 1390      346      64
     Max          67      27      9                 1392      348      67
     Sum        1003     397    127                20875     5209     965
 
     Using Slab Decomposition
 

     Gaussian broadening (read from file): ngauss,degauss=   0    0.010000

 
     DOS          :   5m58.84s CPU   7m57.35s WALL

 
   This run was terminated on:  15:11:22  12Aug2024            

=------------------------------------------------------------------------------=
   JOB DONE.
=------------------------------------------------------------------------------=
