
     Program PWSCF v.7.3.1 starts on 14Aug2024 at 13:10:47 

     This program is part of the open-source Quantum ESPRESSO suite
     for quantum simulation of materials; please cite
         "P. Giannozzi et al., J. Phys.:Condens. Matter 21 395502 (2009);
         "P. Giannozzi et al., J. Phys.:Condens. Matter 29 465901 (2017);
         "P. Giannozzi et al., J. Chem. Phys. 152 154105 (2020);
          URL http://www.quantum-espresso.org", 
     in publications or presentations arising from this work. More details at
     http://www.quantum-espresso.org/quote

     Parallel version (MPI & OpenMP), running on      18 processor cores
     Number of MPI processes:                18
     Threads/MPI process:                     1

     MPI processes distributed on     1 nodes
     42591 MiB available memory on the printing compute node when the environment starts
 
     Reading input from al_nscf.in

     Current dimensions of program PWSCF are:
     Max number of different atomic species (ntypx) = 10
     Max number of k-points (npk) =  40000
     Max angular momentum in pseudopotentials (lmaxx) =  4

     Atomic positions and unit cell read from directory:
     ./tmp/al.save/
 
 
     K-points division:     npool     =       2
     R & G space division:  proc/nbgrp/npool/nimage =       9
     Subspace diagonalization in iterative solution of the eigenvalue problem:
     a serial algorithm will be used

 
     Parallelization info
     --------------------
     sticks:   dense  smooth     PW     G-vecs:    dense   smooth      PW
     Min         111      44     15                 2318      578     118
     Max         112      45     16                 2321      580     119
     Sum        1003     397    139                20875     5209    1067
 
     Using Slab Decomposition
 


     bravais-lattice index     =            2
     lattice parameter (alat)  =       7.6307  a.u.
     unit-cell volume          =     111.0815 (a.u.)^3
     number of atoms/cell      =            1
     number of atomic types    =            1
     number of electrons       =         3.00
     number of Kohn-Sham states=            6
     kinetic-energy cutoff     =      50.0000  Ry
     charge density cutoff     =     500.0000  Ry
     Exchange-correlation= PBE
                           (   1   4   3   4   0   0   0)

     celldm(1)=   7.630750  celldm(2)=   0.000000  celldm(3)=   0.000000
     celldm(4)=   0.000000  celldm(5)=   0.000000  celldm(6)=   0.000000

     crystal axes: (cart. coord. in units of alat)
               a(1) = (  -0.500000   0.000000   0.500000 )  
               a(2) = (   0.000000   0.500000   0.500000 )  
               a(3) = (  -0.500000   0.500000   0.000000 )  

     reciprocal axes: (cart. coord. in units 2 pi/alat)
               b(1) = ( -1.000000 -1.000000  1.000000 )  
               b(2) = (  1.000000  1.000000  1.000000 )  
               b(3) = ( -1.000000  1.000000 -1.000000 )  


     PseudoPot. # 1 for Al read from file:
     ./pseudos/Al.pbe.UPF
     MD5 check sum: a92309766db89a6b54a5f8790cc4d69e
     Pseudo is Norm-conserving + core correction, Zval =  3.0
     Generated using ONCVPSP code by D. R. Hamann
     Using radial grid of 1876 points,  6 beta functions with: 
                l(1) =   0
                l(2) =   0
                l(3) =   1
                l(4) =   1
                l(5) =   2
                l(6) =   2

     atomic species   valence    mass     pseudopotential
     Al                3.00    26.98154     Al( 1.00)

     No symmetry found



   Cartesian axes

     site n.     atom                  positions (alat units)
         1        Al     tau(   1) = (   0.0000000   0.0000000   0.0000000  )

     number of k points=  8000  Gaussian smearing, width (Ry)=  0.0100

     Number of k-points >= 100: set verbosity='high' to print them.

     Dense  grid:    20875 G-vectors     FFT dimensions: (  40,  40,  40)

     Smooth grid:     5209 G-vectors     FFT dimensions: (  25,  25,  25)

     Estimated max dynamical RAM per process >       2.69 MB

     Estimated total dynamical RAM >      48.49 MB

     The potential is recalculated from file :
     ./tmp/al.save/charge-density

     Starting wfcs are    4 randomized atomic wfcs +    2 random wfcs

     Band Structure Calculation
     Davidson diagonalization with overlap
     c_bands:  1 eigenvalues not converged
     c_bands:  1 eigenvalues not converged
     c_bands:  1 eigenvalues not converged
     c_bands:  1 eigenvalues not converged
     c_bands:  1 eigenvalues not converged
     c_bands:  1 eigenvalues not converged
     c_bands:  1 eigenvalues not converged
     c_bands:  1 eigenvalues not converged
     c_bands:  1 eigenvalues not converged
     c_bands:  1 eigenvalues not converged
     c_bands:  1 eigenvalues not converged
     c_bands:  1 eigenvalues not converged
     c_bands:  1 eigenvalues not converged
     c_bands:  1 eigenvalues not converged
     c_bands:  1 eigenvalues not converged
     c_bands:  1 eigenvalues not converged
     c_bands:  1 eigenvalues not converged
     c_bands:  1 eigenvalues not converged
     c_bands:  1 eigenvalues not converged
     c_bands:  1 eigenvalues not converged
     c_bands:  1 eigenvalues not converged
     c_bands:  1 eigenvalues not converged
     c_bands:  1 eigenvalues not converged
     c_bands:  1 eigenvalues not converged
     c_bands:  1 eigenvalues not converged
     c_bands:  1 eigenvalues not converged
     c_bands:  1 eigenvalues not converged
     c_bands:  1 eigenvalues not converged
     c_bands:  1 eigenvalues not converged
     c_bands:  1 eigenvalues not converged
     c_bands:  1 eigenvalues not converged
     c_bands:  1 eigenvalues not converged
     c_bands:  1 eigenvalues not converged
     c_bands:  1 eigenvalues not converged
     c_bands:  1 eigenvalues not converged
     c_bands:  1 eigenvalues not converged

     ethr =  3.33E-10,  avg # of iterations = 35.2

     total cpu time spent up to now is      164.8 secs

     End of band structure calculation

     Number of k-points >= 100: set verbosity='high' to print the bands.

     the Fermi energy is     8.0001 ev
     (compare with:     8.0825 eV, computed in scf)

     Writing all to output data dir ./tmp/al.save/ :
     XML data file, pseudopotentials, collected wavefunctions
 
     init_run     :      0.06s CPU      0.08s WALL (       1 calls)
     electrons    :    148.47s CPU    163.55s WALL (       1 calls)

     Called by init_run:
     wfcinit      :      0.00s CPU      0.00s WALL (       1 calls)
     potinit      :      0.00s CPU      0.01s WALL (       1 calls)
     hinit0       :      0.01s CPU      0.02s WALL (       1 calls)

     Called by electrons:
     c_bands      :    148.42s CPU    163.50s WALL (       1 calls)
     v_of_rho     :      0.00s CPU      0.01s WALL (       1 calls)

     Called by c_bands:
     init_us_2    :      0.19s CPU      0.20s WALL (    4000 calls)
     cegterg      :    127.31s CPU    137.32s WALL (    9071 calls)

     Called by *egterg:
     cdiaghg      :     13.22s CPU     14.35s WALL (  147035 calls)
     h_psi        :     95.65s CPU    103.19s WALL (  156106 calls)
     g_psi        :      1.18s CPU      1.27s WALL (  143035 calls)

     Called by h_psi:
     h_psi:calbec :      6.30s CPU      6.80s WALL (  156106 calls)
     vloc_psi     :     84.48s CPU     91.17s WALL (  156106 calls)
     add_vuspsi   :      2.39s CPU      2.63s WALL (  156106 calls)

     General routines
     calbec       :      5.55s CPU      6.06s WALL (  156106 calls)
     fft          :      0.00s CPU      0.00s WALL (      12 calls)
     ffts         :      0.00s CPU      0.00s WALL (       1 calls)
     fftw         :     67.75s CPU     72.82s WALL ( 1286508 calls)
     interpolate  :      0.00s CPU      0.00s WALL (       1 calls)
     davcio       :      0.14s CPU      0.16s WALL (    8000 calls)
 
     Parallel routines
 
     PWSCF        :   2m34.94s CPU   2m52.25s WALL

 
   This run was terminated on:  13:13:39  14Aug2024            

=------------------------------------------------------------------------------=
   JOB DONE.
=------------------------------------------------------------------------------=
