
     Program PWSCF v.7.3.1 starts on 12Aug2024 at 13:58:39 

     This program is part of the open-source Quantum ESPRESSO suite
     for quantum simulation of materials; please cite
         "P. Giannozzi et al., J. Phys.:Condens. Matter 21 395502 (2009);
         "P. Giannozzi et al., J. Phys.:Condens. Matter 29 465901 (2017);
         "P. Giannozzi et al., J. Chem. Phys. 152 154105 (2020);
          URL http://www.quantum-espresso.org", 
     in publications or presentations arising from this work. More details at
     http://www.quantum-espresso.org/quote

     Parallel version (MPI & OpenMP), running on      15 processor cores
     Number of MPI processes:                15
     Threads/MPI process:                     1

     MPI processes distributed on     1 nodes
     54683 MiB available memory on the printing compute node when the environment starts
 
     Reading input from al_vc-relax.in

     Current dimensions of program PWSCF are:
     Max number of different atomic species (ntypx) = 10
     Max number of k-points (npk) =  40000
     Max angular momentum in pseudopotentials (lmaxx) =  4
 
     K-points division:     npool     =       3
     R & G space division:  proc/nbgrp/npool/nimage =       5
     Subspace diagonalization in iterative solution of the eigenvalue problem:
     a serial algorithm will be used

 
     Parallelization info
     --------------------
     sticks:   dense  smooth     PW     G-vecs:    dense   smooth      PW
     Min         202      81     25                 4236     1065     192
     Max         204      82     26                 4238     1066     195
     Sum        1015     409    127                21187     5329     965
 
     Using Slab Decomposition
 


     bravais-lattice index     =            2
     lattice parameter (alat)  =       7.6520  a.u.
     unit-cell volume          =     112.0121 (a.u.)^3
     number of atoms/cell      =            1
     number of atomic types    =            1
     number of electrons       =         3.00
     number of Kohn-Sham states=            6
     kinetic-energy cutoff     =      50.0000  Ry
     charge density cutoff     =     500.0000  Ry
     scf convergence threshold =      1.0E-08
     mixing beta               =       0.7000
     number of iterations used =            8  plain     mixing
     energy convergence thresh.=      1.0E-06
     force convergence thresh. =      1.0E-05
     press convergence thresh. =      5.0E-01
     Exchange-correlation= PBE
                           (   1   4   3   4   0   0   0)
     nstep                     =           50


     celldm(1)=   7.652000  celldm(2)=   0.000000  celldm(3)=   0.000000
     celldm(4)=   0.000000  celldm(5)=   0.000000  celldm(6)=   0.000000

     crystal axes: (cart. coord. in units of alat)
               a(1) = (  -0.500000   0.000000   0.500000 )  
               a(2) = (   0.000000   0.500000   0.500000 )  
               a(3) = (  -0.500000   0.500000   0.000000 )  

     reciprocal axes: (cart. coord. in units 2 pi/alat)
               b(1) = ( -1.000000 -1.000000  1.000000 )  
               b(2) = (  1.000000  1.000000  1.000000 )  
               b(3) = ( -1.000000  1.000000 -1.000000 )  


     PseudoPot. # 1 for Al read from file:
     ./pseudos/Al.pbe.UPF
     MD5 check sum: 5a6c55f3b99f2abdac03b1be5cc35813
     Pseudo is Ultrasoft + core correction, Zval =  3.0
     Generated using &quot;atomic&quot; code by A. Dal Corso  v.6.3
     Using radial grid of 1135 points,  6 beta functions with: 
                l(1) =   0
                l(2) =   0
                l(3) =   1
                l(4) =   1
                l(5) =   2
                l(6) =   2
     Q(r) pseudized with 0 coefficients 


     atomic species   valence    mass     pseudopotential
     Al                3.00    26.98154     Al( 1.00)

     48 Sym. Ops., with inversion, found



   Cartesian axes

     site n.     atom                  positions (alat units)
         1        Al     tau(   1) = (   0.0000000   0.0000000   0.0000000  )

     number of k points=    16  Gaussian smearing, width (Ry)=  0.0100
                       cart. coord. in units 2pi/alat
        k(    1) = (   0.0000000   0.0000000   0.0000000), wk =   0.0092593
        k(    2) = (  -0.1666667   0.1666667  -0.1666667), wk =   0.0740741
        k(    3) = (  -0.3333333   0.3333333  -0.3333333), wk =   0.0740741
        k(    4) = (   0.5000000  -0.5000000   0.5000000), wk =   0.0370370
        k(    5) = (   0.0000000   0.3333333   0.0000000), wk =   0.0555556
        k(    6) = (  -0.1666667   0.5000000  -0.1666667), wk =   0.2222222
        k(    7) = (   0.6666667  -0.3333333   0.6666667), wk =   0.2222222
        k(    8) = (   0.5000000  -0.1666667   0.5000000), wk =   0.2222222
        k(    9) = (   0.3333333   0.0000000   0.3333333), wk =   0.1111111
        k(   10) = (   0.0000000   0.6666667   0.0000000), wk =   0.0555556
        k(   11) = (   0.8333333  -0.1666667   0.8333333), wk =   0.2222222
        k(   12) = (   0.6666667  -0.0000000   0.6666667), wk =   0.1111111
        k(   13) = (   0.0000000  -1.0000000   0.0000000), wk =   0.0277778
        k(   14) = (   0.6666667  -0.3333333   1.0000000), wk =   0.2222222
        k(   15) = (   0.5000000  -0.1666667   0.8333333), wk =   0.2222222
        k(   16) = (  -0.3333333  -1.0000000   0.0000000), wk =   0.1111111

     Dense  grid:    21187 G-vectors     FFT dimensions: (  40,  40,  40)

     Smooth grid:     5329 G-vectors     FFT dimensions: (  25,  25,  25)

     Estimated max dynamical RAM per process >      10.68 MB

     Estimated total dynamical RAM >     149.84 MB

     Initial potential from superposition of free atoms

     starting charge       2.9977, renormalised to       3.0000
     Starting wfcs are    4 randomized atomic wfcs +    2 random wfcs

     total cpu time spent up to now is       41.0 secs

     Self-consistent Calculation

     iteration #  1     ecut=    50.00 Ry     beta= 0.70
     Davidson diagonalization with overlap
     ethr =  1.00E-02,  avg # of iterations =  6.1

     Threshold (ethr) on eigenvalues was too large:
     Diagonalizing with lowered threshold

     Davidson diagonalization with overlap
     ethr =  1.78E-04,  avg # of iterations =  2.9

     total cpu time spent up to now is       93.7 secs

     total energy              =      -5.04472447 Ry
     estimated scf accuracy    <       0.00518804 Ry

     iteration #  2     ecut=    50.00 Ry     beta= 0.70
     Davidson diagonalization with overlap
     ethr =  1.73E-04,  avg # of iterations =  1.1

     total cpu time spent up to now is      110.1 secs

     total energy              =      -5.04469779 Ry
     estimated scf accuracy    <       0.00036166 Ry

     iteration #  3     ecut=    50.00 Ry     beta= 0.70
     Davidson diagonalization with overlap
     ethr =  1.21E-05,  avg # of iterations =  2.3

     total cpu time spent up to now is      132.5 secs

     total energy              =      -5.04470576 Ry
     estimated scf accuracy    <       0.00000048 Ry

     iteration #  4     ecut=    50.00 Ry     beta= 0.70
     Davidson diagonalization with overlap
     ethr =  1.60E-08,  avg # of iterations =  2.9

     total cpu time spent up to now is      150.7 secs

     End of self-consistent calculation

          k = 0.0000 0.0000 0.0000 (   645 PWs)   bands (ev):

    -3.2545  20.4236  20.4236  21.8694  21.8694  21.8694

          k =-0.1667 0.1667-0.1667 (   661 PWs)   bands (ev):

    -2.5038  14.4635  19.1471  19.1471  22.3876  23.7804

          k =-0.3333 0.3333-0.3333 (   658 PWs)   bands (ev):

    -0.2750   8.3359  18.5670  18.5670  21.1497  21.1497

          k = 0.5000-0.5000 0.5000 (   652 PWs)   bands (ev):

     3.2700   3.4704  19.1882  19.1882  19.2736  23.0303

          k = 0.0000 0.3333 0.0000 (   665 PWs)   bands (ev):

    -2.2544  16.8186  16.8187  16.9980  20.0473  20.2958

          k =-0.1667 0.5000-0.1667 (   664 PWs)   bands (ev):

    -0.5212  10.8339  15.7639  16.4992  17.4102  22.2869

          k = 0.6667-0.3333 0.6667 (   672 PWs)   bands (ev):

     2.6402   5.5154  14.0391  15.9901  17.7726  23.7551

          k = 0.5000-0.1667 0.5000 (   672 PWs)   bands (ev):

     1.4344   7.1412  12.9301  17.4986  19.4303  22.6929

          k = 0.3333 0.0000 0.3333 (   662 PWs)   bands (ev):

    -1.2613  12.3165  13.7163  20.2456  22.2745  22.3714

          k = 0.0000 0.6667 0.0000 (   680 PWs)   bands (ev):

     0.7021  12.2080  14.0894  14.2649  14.2649  17.7468

          k = 0.8333-0.1667 0.8333 (   674 PWs)   bands (ev):

     3.3412   8.8749   9.3368  14.0555  15.5614  20.7128

          k = 0.6667-0.0000 0.6667 (   680 PWs)   bands (ev):

     4.5475   6.7710   8.2286  15.1317  16.8960  26.4417

          k = 0.0000-1.0000 0.0000 (   692 PWs)   bands (ev):

     4.9299   6.2441  13.0999  13.4132  13.4132  16.8509

          k = 0.6667-0.3333 1.0000 (   670 PWs)   bands (ev):

     1.6747   9.5430  10.9956  13.1930  20.6261  22.2366

          k = 0.5000-0.1667 0.8333 (   672 PWs)   bands (ev):

     5.1191   5.3770  10.8412  11.3952  21.8156  22.3004

          k =-0.3333-1.0000 0.0000 (   674 PWs)   bands (ev):

     5.8497   7.1933   8.6182  10.1764  19.7398  21.5494

     the Fermi energy is     8.1962 ev

!    total energy              =      -5.04470605 Ry
     estimated scf accuracy    <          1.3E-09 Ry
     smearing contrib. (-TS)   =      -0.00036888 Ry
     internal energy E=F+TS    =      -5.04433717 Ry

     The total energy is F=E-TS. E is the sum of the following terms:
     one-electron contribution =       2.93042478 Ry
     hartree contribution      =       0.00531631 Ry
     xc contribution           =      -2.58753270 Ry
     ewald contribution        =      -5.39254557 Ry

     convergence has been achieved in   4 iterations

     Forces acting on atoms (cartesian axes, Ry/au):

     atom    1 type  1   force =     0.00000000    0.00000000    0.00000000

     Total force =     0.000000     Total SCF correction =     0.000000


     Computing stress (Cartesian axis) and pressure

          total   stress  (Ry/bohr**3)                   (kbar)     P=       -1.06
  -0.00000719  -0.00000000  -0.00000000           -1.06       -0.00       -0.00
  -0.00000000  -0.00000719   0.00000000           -0.00       -1.06        0.00
  -0.00000000   0.00000000  -0.00000719           -0.00        0.00       -1.06


     BFGS Geometry Optimization
     Energy error            =      0.0E+00 Ry
     Gradient error          =      0.0E+00 Ry/Bohr
     Cell gradient error     =      1.1E+00 kbar

     number of scf cycles    =   1
     number of bfgs steps    =   0

     enthalpy           new  =      -5.0447060487 Ry

     new trust radius        =       0.0003807200 bohr
ibrav =      2
 celldm(1) =      7.65062368
Input lattice vectors:
    -0.49991007     0.00000000     0.49991007
    -0.00000000     0.49991007     0.49991007
    -0.49991007     0.49991007     0.00000000
New lattice vectors in INITIAL alat:
    -0.49991007     0.00000000     0.49991007
     0.00000000     0.49991007     0.49991007
    -0.49991007     0.49991007     0.00000000
New lattice vectors in NEW alat (for information only):
    -0.50000000     0.00000000     0.50000000
     0.00000000     0.50000000     0.50000000
    -0.50000000     0.50000000     0.00000000
Discrepancy in bohr =     0.000000    0.000000    0.000000

Atomic positions rescaled with new alat:
Al               0.0000000000        0.0000000000        0.0000000000
     new conv_thr            =       0.0000000100 Ry

     new unit-cell volume =    111.95166 a.u.^3 (    16.58952 Ang^3 )
     density =      2.70073 g/cm^3

CELL_PARAMETERS (alat=  7.65200000)
  -0.499910068   0.000000000   0.499910068
   0.000000000   0.499910068   0.499910068
  -0.499910068   0.499910068   0.000000000

ATOMIC_POSITIONS (alat)
Al               0.0000000000        0.0000000000        0.0000000000



     Writing config-only to output data dir ./tmp/al.save/ :
     XML data file
     NEW-OLD atomic charge density approx. for the potential

     total cpu time spent up to now is      161.6 secs

     Self-consistent Calculation

     iteration #  1     ecut=    50.00 Ry     beta= 0.70
     Davidson diagonalization with overlap
     ethr =  1.00E-06,  avg # of iterations =  2.4

     Threshold (ethr) on eigenvalues was too large:
     Diagonalizing with lowered threshold

     Davidson diagonalization with overlap
     ethr =  1.05E-11,  avg # of iterations =  3.4

     total cpu time spent up to now is      201.4 secs

     End of self-consistent calculation

          k = 0.0000 0.0000 0.0000 (   645 PWs)   bands (ev):

    -3.2527  20.4321  20.4321  21.8820  21.8820  21.8820

          k =-0.1667 0.1667-0.1667 (   661 PWs)   bands (ev):

    -2.5017  14.4711  19.1565  19.1565  22.3985  23.7924

          k =-0.3334 0.3334-0.3334 (   658 PWs)   bands (ev):

    -0.2722   8.3416  18.5765  18.5765  21.1598  21.1598

          k = 0.5001-0.5001 0.5001 (   652 PWs)   bands (ev):

     3.2733   3.4752  19.1995  19.1995  19.2816  19.2816

          k = 0.0000 0.3334 0.0000 (   665 PWs)   bands (ev):

    -2.2522  16.8275  16.8275  17.0052  20.0599  20.3043

          k =-0.1667 0.5001-0.1667 (   664 PWs)   bands (ev):

    -0.5184  10.8404  15.7726  16.5074  17.4194  22.2982

          k = 0.6668-0.3334 0.6668 (   672 PWs)   bands (ev):

     2.6440   5.5202  14.0468  15.9989  17.7818  23.7660

          k = 0.5001-0.1667 0.5001 (   672 PWs)   bands (ev):

     1.4378   7.1465  12.9376  17.5078  19.4400  22.7034

          k = 0.3334 0.0000 0.3334 (   662 PWs)   bands (ev):

    -1.2588  12.3230  13.7245  20.2560  22.2851  22.3806

          k = 0.0000 0.6668 0.0000 (   680 PWs)   bands (ev):

     0.7052  12.2149  14.0954  14.2731  14.2731  17.7577

          k = 0.8335-0.1667 0.8335 (   674 PWs)   bands (ev):

     3.3452   8.8801   9.3436  14.0637  15.5696  20.7235

          k = 0.6668 0.0000 0.6668 (   680 PWs)   bands (ev):

     4.5519   6.7758   8.2351  15.1402  16.9048  26.4539

          k = 0.0000-1.0002 0.0000 (   692 PWs)   bands (ev):

     4.9341   6.2495  13.1056  13.4212  13.4212  16.8614

          k = 0.6668-0.3334 1.0002 (   670 PWs)   bands (ev):

     1.6781   9.5486  11.0027  13.2009  20.6354  22.2484

          k = 0.5001-0.1667 0.8335 (   672 PWs)   bands (ev):

     5.1231   5.3823  10.8470  11.4035  21.8264  22.3105

          k =-0.3334-1.0002-0.0000 (   674 PWs)   bands (ev):

     5.8542   7.1988   8.6235  10.1841  19.7488  21.5609

     the Fermi energy is     8.2025 ev

!    total energy              =      -5.04470640 Ry
     estimated scf accuracy    <          2.3E-10 Ry
     smearing contrib. (-TS)   =      -0.00036936 Ry
     internal energy E=F+TS    =      -5.04433704 Ry

     The total energy is F=E-TS. E is the sum of the following terms:
     one-electron contribution =       2.93168234 Ry
     hartree contribution      =       0.00531830 Ry
     xc contribution           =      -2.58782201 Ry
     ewald contribution        =      -5.39351566 Ry

     convergence has been achieved in   1 iterations

     Forces acting on atoms (cartesian axes, Ry/au):

     atom    1 type  1   force =     0.00000000    0.00000000    0.00000000

     Total force =     0.000000     Total SCF correction =     0.000000


     Computing stress (Cartesian axis) and pressure

          total   stress  (Ry/bohr**3)                   (kbar)     P=       -0.64
  -0.00000435   0.00000000   0.00000000           -0.64        0.00        0.00
  -0.00000000  -0.00000435  -0.00000000           -0.00       -0.64       -0.00
  -0.00000000  -0.00000000  -0.00000435           -0.00       -0.00       -0.64

     Energy error            =      3.5E-07 Ry
     Gradient error          =      0.0E+00 Ry/Bohr
     Cell gradient error     =      6.4E-01 kbar

     number of scf cycles    =   2
     number of bfgs steps    =   1

     enthalpy           old  =      -5.0447060487 Ry
     enthalpy           new  =      -5.0447064001 Ry

     CASE: enthalpy          _new < enthalpy          _old

     new trust radius        =       0.0005710287 bohr
ibrav =      2
 celldm(1) =      7.64855921
Input lattice vectors:
    -0.49977517    -0.00000000     0.49977517
     0.00000000     0.49977517     0.49977517
    -0.49977517     0.49977517    -0.00000000
New lattice vectors in INITIAL alat:
    -0.49977517     0.00000000     0.49977517
     0.00000000     0.49977517     0.49977517
    -0.49977517     0.49977517     0.00000000
New lattice vectors in NEW alat (for information only):
    -0.50000000     0.00000000     0.50000000
     0.00000000     0.50000000     0.50000000
    -0.50000000     0.50000000     0.00000000
Discrepancy in bohr =     0.000000    0.000000    0.000000

Atomic positions rescaled with new alat:
Al               0.0000000000        0.0000000000        0.0000000000
     new conv_thr            =            1.0E-10 Ry

     new unit-cell volume =    111.86105 a.u.^3 (    16.57610 Ang^3 )
     density =      2.70292 g/cm^3

CELL_PARAMETERS (alat=  7.65200000)
  -0.499775170   0.000000000   0.499775170
   0.000000000   0.499775170   0.499775170
  -0.499775170   0.499775170   0.000000000

ATOMIC_POSITIONS (alat)
Al               0.0000000000        0.0000000000        0.0000000000



     Writing config-only to output data dir ./tmp/al.save/ :
     XML data file
     NEW-OLD atomic charge density approx. for the potential

     total cpu time spent up to now is      211.9 secs

     Self-consistent Calculation

     iteration #  1     ecut=    50.00 Ry     beta= 0.70
     Davidson diagonalization with overlap
     ethr =  1.00E-06,  avg # of iterations =  2.0

     Threshold (ethr) on eigenvalues was too large:
     Diagonalizing with lowered threshold

     Davidson diagonalization with overlap
     ethr =  2.38E-11,  avg # of iterations =  3.6

     total cpu time spent up to now is      251.2 secs

     total energy              =      -5.04470661 Ry
     estimated scf accuracy    <          5.3E-10 Ry

     iteration #  2     ecut=    50.00 Ry     beta= 0.70
     Davidson diagonalization with overlap
     ethr =  1.78E-11,  avg # of iterations =  1.0

     total cpu time spent up to now is      266.6 secs

     End of self-consistent calculation

          k = 0.0000 0.0000 0.0000 (   645 PWs)   bands (ev):

    -3.2500  20.4449  20.4449  21.9007  21.9009  21.9009

          k =-0.1667 0.1667-0.1667 (   661 PWs)   bands (ev):

    -2.4986  14.4826  19.1706  19.1706  22.4149  23.8107

          k =-0.3335 0.3335-0.3335 (   658 PWs)   bands (ev):

    -0.2679   8.3502  18.5907  18.5907  21.1751  21.1751

          k = 0.5002-0.5002 0.5002 (   652 PWs)   bands (ev):

     3.2784   3.4824  19.2163  19.2163  19.2936  19.2936

          k = 0.0000 0.3335 0.0000 (   665 PWs)   bands (ev):

    -2.2489  16.8408  16.8408  17.0159  20.0790  20.3170

          k =-0.1667 0.5002-0.1667 (   664 PWs)   bands (ev):

    -0.5143  10.8500  15.7855  16.5197  17.4331  22.3151

          k = 0.6670-0.3335 0.6670 (   672 PWs)   bands (ev):

     2.6497   5.5275  14.0585  16.0120  17.7956  23.7825

          k = 0.5002-0.1667 0.5002 (   672 PWs)   bands (ev):

     1.4429   7.1544  12.9489  17.5217  19.4546  22.7191

          k = 0.3335 0.0000 0.3335 (   662 PWs)   bands (ev):

    -1.2550  12.3328  13.7369  20.2716  22.3009  22.3946

          k = 0.0000 0.6670 0.0000 (   680 PWs)   bands (ev):

     0.7100  12.2254  14.1045  14.2855  14.2855  17.7741

          k = 0.8337-0.1667 0.8337 (   674 PWs)   bands (ev):

     3.3512   8.8880   9.3538  14.0760  15.5818  20.7398

          k = 0.6670 0.0000 0.6670 (   680 PWs)   bands (ev):

     4.5584   6.7830   8.2447  15.1529  16.9180  26.4724

          k = 0.0000-1.0004 0.0000 (   692 PWs)   bands (ev):

     4.9405   6.2577  13.1141  13.4333  13.4333  16.8773

          k = 0.6670-0.3335 1.0004 (   670 PWs)   bands (ev):

     1.6834   9.5571  11.0133  13.2129  20.6494  22.2662

          k = 0.5002-0.1667 0.8337 (   672 PWs)   bands (ev):

     5.1291   5.3902  10.8557  11.4159  21.8427  22.3257

          k =-0.3335-1.0004 0.0000 (   674 PWs)   bands (ev):

     5.8609   7.2072   8.6315  10.1956  19.7624  21.5783

     the Fermi energy is     8.2119 ev

!    total energy              =      -5.04470661 Ry
     estimated scf accuracy    <          3.8E-11 Ry
     smearing contrib. (-TS)   =      -0.00037010 Ry
     internal energy E=F+TS    =      -5.04433651 Ry

     The total energy is F=E-TS. E is the sum of the following terms:
     one-electron contribution =       2.93356902 Ry
     hartree contribution      =       0.00532152 Ry
     xc contribution           =      -2.58825559 Ry
     ewald contribution        =      -5.39497146 Ry

     convergence has been achieved in   2 iterations

     Forces acting on atoms (cartesian axes, Ry/au):

     atom    1 type  1   force =     0.00000000    0.00000000    0.00000000

     Total force =     0.000000     Total SCF correction =     0.000000


     Computing stress (Cartesian axis) and pressure

          total   stress  (Ry/bohr**3)                   (kbar)     P=       -0.02
  -0.00000014  -0.00000000  -0.00000000           -0.02       -0.00       -0.00
  -0.00000000  -0.00000014   0.00000000           -0.00       -0.02        0.00
  -0.00000000   0.00000000  -0.00000014           -0.00        0.00       -0.02

     Energy error            =      2.1E-07 Ry
     Gradient error          =      0.0E+00 Ry/Bohr
     Cell gradient error     =      2.1E-02 kbar
ibrav =      2
 celldm(1) =      7.64855921
Input lattice vectors:
    -0.49977517     0.00000000     0.49977517
     0.00000000     0.49977517     0.49977517
    -0.49977517     0.49977517     0.00000000
New lattice vectors in INITIAL alat:
    -0.49977517     0.00000000     0.49977517
     0.00000000     0.49977517     0.49977517
    -0.49977517     0.49977517     0.00000000
New lattice vectors in NEW alat (for information only):
    -0.50000000     0.00000000     0.50000000
     0.00000000     0.50000000     0.50000000
    -0.50000000     0.50000000     0.00000000
Discrepancy in bohr =     0.000000    0.000000    0.000000

Atomic positions rescaled with new alat:
Al               0.0000000000        0.0000000000        0.0000000000

     bfgs converged in   3 scf cycles and   2 bfgs steps
     (criteria: energy <  1.0E-06 Ry, force <  1.0E-05 Ry/Bohr, cell <  5.0E-01 kbar)

     End of BFGS Geometry Optimization

     Final enthalpy           =      -5.0447066063 Ry

     File ./tmp/al.bfgs deleted, as requested
Begin final coordinates
     new unit-cell volume =    111.86105 a.u.^3 (    16.57610 Ang^3 )
     density =      2.70292 g/cm^3

CELL_PARAMETERS (alat=  7.65200000)
  -0.499775170   0.000000000   0.499775170
   0.000000000   0.499775170   0.499775170
  -0.499775170   0.499775170   0.000000000

ATOMIC_POSITIONS (alat)
Al               0.0000000000        0.0000000000        0.0000000000
End final coordinates



     Writing config-only to output data dir ./tmp/al.save/ :
     XML data file

     Final scf calculation at the relaxed structure.
     The G-vectors are recalculated for the final unit cell
     Results may differ from those at the preceding step.
 
     Parallelization info
     --------------------
     sticks:   dense  smooth     PW     G-vecs:    dense   smooth      PW
     Min         202      81     25                 4236     1065     192
     Max         204      82     26                 4238     1066     195
     Sum        1015     409    127                21187     5329     965
 
     Using Slab Decomposition
 


     bravais-lattice index     =            2
     lattice parameter (alat)  =       7.6520  a.u.
     unit-cell volume          =     111.8611 (a.u.)^3
     number of atoms/cell      =            1
     number of atomic types    =            1
     number of electrons       =         3.00
     number of Kohn-Sham states=            6
     kinetic-energy cutoff     =      50.0000  Ry
     charge density cutoff     =     500.0000  Ry
     scf convergence threshold =      1.0E-10
     mixing beta               =       0.7000
     number of iterations used =            8  plain     mixing
     press convergence thresh. =      5.0E-01
     Exchange-correlation= PBE
                           (   1   4   3   4   0   0   0)

     celldm(1)=   7.652000  celldm(2)=   0.000000  celldm(3)=   0.000000
     celldm(4)=   0.000000  celldm(5)=   0.000000  celldm(6)=   0.000000

     crystal axes: (cart. coord. in units of alat)
               a(1) = (  -0.499775   0.000000   0.499775 )  
               a(2) = (   0.000000   0.499775   0.499775 )  
               a(3) = (  -0.499775   0.499775   0.000000 )  

     reciprocal axes: (cart. coord. in units 2 pi/alat)
               b(1) = ( -1.000450 -1.000450  1.000450 )  
               b(2) = (  1.000450  1.000450  1.000450 )  
               b(3) = ( -1.000450  1.000450 -1.000450 )  


     PseudoPot. # 1 for Al read from file:
     ./pseudos/Al.pbe.UPF
     MD5 check sum: 5a6c55f3b99f2abdac03b1be5cc35813
     Pseudo is Ultrasoft + core correction, Zval =  3.0
     Generated using &quot;atomic&quot; code by A. Dal Corso  v.6.3
     Using radial grid of 1135 points,  6 beta functions with: 
                l(1) =   0
                l(2) =   0
                l(3) =   1
                l(4) =   1
                l(5) =   2
                l(6) =   2
     Q(r) pseudized with 0 coefficients 


     atomic species   valence    mass     pseudopotential
     Al                3.00    26.98154     Al( 1.00)

     48 Sym. Ops., with inversion, found



   Cartesian axes

     site n.     atom                  positions (alat units)
         1        Al     tau(   1) = (   0.0000000   0.0000000   0.0000000  )

     number of k points=    16  Gaussian smearing, width (Ry)=  0.0100
                       cart. coord. in units 2pi/alat
        k(    1) = (   0.0000000   0.0000000   0.0000000), wk =   0.0092593
        k(    2) = (  -0.1667416   0.1667416  -0.1667416), wk =   0.0740741
        k(    3) = (  -0.3334833   0.3334833  -0.3334833), wk =   0.0740741
        k(    4) = (   0.5002249  -0.5002249   0.5002249), wk =   0.0370370
        k(    5) = (   0.0000000   0.3334833   0.0000000), wk =   0.0555556
        k(    6) = (  -0.1667416   0.5002249  -0.1667416), wk =   0.2222222
        k(    7) = (   0.6669666  -0.3334833   0.6669666), wk =   0.2222222
        k(    8) = (   0.5002249  -0.1667416   0.5002249), wk =   0.2222222
        k(    9) = (   0.3334833   0.0000000   0.3334833), wk =   0.1111111
        k(   10) = (   0.0000000   0.6669666   0.0000000), wk =   0.0555556
        k(   11) = (   0.8337082  -0.1667416   0.8337082), wk =   0.2222222
        k(   12) = (   0.6669666   0.0000000   0.6669666), wk =   0.1111111
        k(   13) = (   0.0000000  -1.0004499   0.0000000), wk =   0.0277778
        k(   14) = (   0.6669666  -0.3334833   1.0004499), wk =   0.2222222
        k(   15) = (   0.5002249  -0.1667416   0.8337082), wk =   0.2222222
        k(   16) = (  -0.3334833  -1.0004499   0.0000000), wk =   0.1111111

     Dense  grid:    21187 G-vectors     FFT dimensions: (  40,  40,  40)

     Smooth grid:     5329 G-vectors     FFT dimensions: (  25,  25,  25)

     Estimated max dynamical RAM per process >      10.71 MB

     Estimated total dynamical RAM >     150.33 MB

     Initial potential from superposition of free atoms

     starting charge       2.9977, renormalised to       3.0000
     Starting wfcs are    4 randomized atomic wfcs +    2 random wfcs

     total cpu time spent up to now is      279.8 secs

     Self-consistent Calculation

     iteration #  1     ecut=    50.00 Ry     beta= 0.70
     Davidson diagonalization with overlap
     c_bands:  1 eigenvalues not converged
     ethr =  1.00E-06,  avg # of iterations = 15.8

     total cpu time spent up to now is      340.7 secs

     total energy              =      -5.04473139 Ry
     estimated scf accuracy    <       0.00517970 Ry

     iteration #  2     ecut=    50.00 Ry     beta= 0.70
     Davidson diagonalization with overlap
     ethr =  1.73E-04,  avg # of iterations =  1.0

     total cpu time spent up to now is      356.3 secs

     total energy              =      -5.04469654 Ry
     estimated scf accuracy    <       0.00036591 Ry

     iteration #  3     ecut=    50.00 Ry     beta= 0.70
     Davidson diagonalization with overlap
     ethr =  1.22E-05,  avg # of iterations =  1.0

     total cpu time spent up to now is      372.1 secs

     total energy              =      -5.04470540 Ry
     estimated scf accuracy    <       0.00000047 Ry

     iteration #  4     ecut=    50.00 Ry     beta= 0.70
     Davidson diagonalization with overlap
     ethr =  1.57E-08,  avg # of iterations =  3.9

     total cpu time spent up to now is      394.6 secs

     total energy              =      -5.04470660 Ry
     estimated scf accuracy    <       0.00000002 Ry

     iteration #  5     ecut=    50.00 Ry     beta= 0.70
     Davidson diagonalization with overlap
     ethr =  6.96E-10,  avg # of iterations =  1.0

     total cpu time spent up to now is      409.3 secs

     total energy              =      -5.04470660 Ry
     estimated scf accuracy    <          3.4E-10 Ry

     iteration #  6     ecut=    50.00 Ry     beta= 0.70
     Davidson diagonalization with overlap
     ethr =  1.13E-11,  avg # of iterations =  1.5

     total cpu time spent up to now is      427.0 secs

     End of self-consistent calculation

          k = 0.0000 0.0000 0.0000 (   645 PWs)   bands (ev):

    -3.2500  20.4449  20.4449  21.9008  21.9009  21.9009

          k =-0.1667 0.1667-0.1667 (   661 PWs)   bands (ev):

    -2.4986  14.4826  19.1706  19.1706  22.4149  23.8107

          k =-0.3335 0.3335-0.3335 (   658 PWs)   bands (ev):

    -0.2679   8.3502  18.5907  18.5907  21.1751  21.1751

          k = 0.5002-0.5002 0.5002 (   652 PWs)   bands (ev):

     3.2784   3.4824  19.2163  19.2163  19.2936  19.2936

          k = 0.0000 0.3335 0.0000 (   665 PWs)   bands (ev):

    -2.2490  16.8408  16.8408  17.0159  20.0790  20.3170

          k =-0.1667 0.5002-0.1667 (   664 PWs)   bands (ev):

    -0.5143  10.8500  15.7855  16.5197  17.4331  22.3151

          k = 0.6670-0.3335 0.6670 (   672 PWs)   bands (ev):

     2.6497   5.5275  14.0585  16.0120  17.7956  23.7825

          k = 0.5002-0.1667 0.5002 (   672 PWs)   bands (ev):

     1.4429   7.1544  12.9489  17.5217  19.4546  22.7191

          k = 0.3335 0.0000 0.3335 (   662 PWs)   bands (ev):

    -1.2550  12.3328  13.7369  20.2716  22.3010  22.3946

          k = 0.0000 0.6670 0.0000 (   664 PWs)   bands (ev):

     0.7100  12.2254  14.1045  14.2855  14.2855  17.7741

          k = 0.8337-0.1667 0.8337 (   674 PWs)   bands (ev):

     3.3512   8.8880   9.3538  14.0760  15.5818  20.7398

          k = 0.6670 0.0000 0.6670 (   680 PWs)   bands (ev):

     4.5584   6.7830   8.2447  15.1529  16.9180  26.4724

          k = 0.0000-1.0004 0.0000 (   692 PWs)   bands (ev):

     4.9405   6.2577  13.1141  13.4333  13.4333  16.8773

          k = 0.6670-0.3335 1.0004 (   670 PWs)   bands (ev):

     1.6834   9.5571  11.0133  13.2129  20.6494  22.2662

          k = 0.5002-0.1667 0.8337 (   672 PWs)   bands (ev):

     5.1291   5.3902  10.8557  11.4160  21.8427  22.3257

          k =-0.3335-1.0004 0.0000 (   674 PWs)   bands (ev):

     5.8609   7.2072   8.6315  10.1956  19.7624  21.5783

     the Fermi energy is     8.2119 ev

!    total energy              =      -5.04470660 Ry
     estimated scf accuracy    <          1.7E-11 Ry
     smearing contrib. (-TS)   =      -0.00037010 Ry
     internal energy E=F+TS    =      -5.04433651 Ry

     The total energy is F=E-TS. E is the sum of the following terms:
     one-electron contribution =       2.93356899 Ry
     hartree contribution      =       0.00532152 Ry
     xc contribution           =      -2.58825556 Ry
     ewald contribution        =      -5.39497146 Ry

     convergence has been achieved in   6 iterations

     Forces acting on atoms (cartesian axes, Ry/au):

     atom    1 type  1   force =     0.00000000    0.00000000    0.00000000

     Total force =     0.000000     Total SCF correction =     0.000000


     Computing stress (Cartesian axis) and pressure

          total   stress  (Ry/bohr**3)                   (kbar)     P=       -0.02
  -0.00000015   0.00000000   0.00000000           -0.02        0.00        0.00
   0.00000000  -0.00000015  -0.00000000            0.00       -0.02       -0.00
   0.00000000  -0.00000000  -0.00000015            0.00       -0.00       -0.02


     Writing all to output data dir ./tmp/al.save/ :
     XML data file, charge density, pseudopotentials, collected wavefunctions
 
     init_run     :      9.07s CPU     11.82s WALL (       2 calls)
     electrons    :    278.14s CPU    355.30s WALL (       4 calls)
     update_pot   :      2.07s CPU      2.53s WALL (       2 calls)
     forces       :     10.14s CPU     12.24s WALL (       4 calls)
     stress       :      9.26s CPU     11.59s WALL (       4 calls)

     Called by init_run:
     wfcinit      :      3.13s CPU      4.02s WALL (       2 calls)
     potinit      :      2.42s CPU      3.09s WALL (       2 calls)
     hinit0       :      1.47s CPU      2.11s WALL (       2 calls)

     Called by electrons:
     c_bands      :    185.47s CPU    235.94s WALL (      16 calls)
     sum_band     :     66.15s CPU     86.36s WALL (      16 calls)
     v_of_rho     :      8.31s CPU     10.00s WALL (      17 calls)
     newd         :      9.14s CPU     11.82s WALL (      17 calls)
     mix_rho      :      2.94s CPU      3.23s WALL (      16 calls)

     Called by c_bands:
     init_us_2    :      0.02s CPU      0.02s WALL (     252 calls)
     cegterg      :     91.15s CPU    109.83s WALL (      96 calls)

     Called by *egterg:
     cdiaghg      :      0.03s CPU      0.16s WALL (     381 calls)
     h_psi        :     51.43s CPU     65.04s WALL (     423 calls)
     s_psi        :      0.01s CPU      0.01s WALL (     423 calls)
     g_psi        :      0.00s CPU      0.00s WALL (     315 calls)

     Called by h_psi:
     h_psi:calbec :     18.37s CPU     21.61s WALL (     423 calls)
     vloc_psi     :     33.05s CPU     43.41s WALL (     423 calls)
     add_vuspsi   :      0.01s CPU      0.01s WALL (     423 calls)

     General routines
     calbec       :     27.48s CPU     32.09s WALL (     639 calls)
     fft          :      4.77s CPU      6.39s WALL (     318 calls)
     ffts         :      1.75s CPU      2.31s WALL (      33 calls)
     fftw         :     37.83s CPU     49.80s WALL (    4226 calls)
     interpolate  :      0.39s CPU      0.53s WALL (      17 calls)
 
     Parallel routines
 
     PWSCF        :   5m41.54s CPU   7m17.25s WALL

 
   This run was terminated on:  14: 5:57  12Aug2024            

=------------------------------------------------------------------------------=
   JOB DONE.
=------------------------------------------------------------------------------=
